;;
;; Generated by CHARMM-GUI FF-Converter
;;
;; Correspondance:
;; jul316@lehigh.edu or wonpil@lehigh.edu
;;
;; The main GROMACS topology file
;;

; Include forcefield parameters
#include "forcefield.itp"
#include "PROA.itp"
#include "POPG.itp"
#include "TIP3.itp"
#include "CLA.itp"

[ system ]
; Name
ORBD CHOL in water 

[ molecules ]
; Compound	#mols
PROA  	           1
POPG  	           5
TIP3        107255
CLA              5
