;;
;; Generated by CHARMM-GUI FF-Converter
;;
;; Correspondance:
;; jul316@lehigh.edu or wonpil@lehigh.edu
;;
;; The main GROMACS topology file
;;

; Include forcefield parameters
#include "forcefield.itp"
#include "PROA.itp"
#include "CHL1.itp"
#include "TIP3.itp"
#include "CLA.itp"

[ system ]
; Name
RBD CHOL in water

[ molecules ]
; Compound	#mols
PROA  	           1
CHL1  	          1
TIP3        62545
CLA              7
